Program Version,EnergyPlus, Version 22.2.0-Unknown (No OpenGL), YMD=2024.08.02 16:52
1,5,Environment Title[],Latitude[deg],Longitude[deg],Time Zone[],Elevation[m]
2,8,Day of Simulation[],Month[],Day of Month[],DST Indicator[1=yes 0=no],Hour[],StartMinute[],EndMinute[],DayType
3,5,Cumulative Day of Simulation[],Month[],Day of Month[],DST Indicator[1=yes 0=no],DayType  ! When Daily Report Variables Requested
4,2,Cumulative Days of Simulation[],Month[]  ! When Monthly Report Variables Requested
5,1,Cumulative Days of Simulation[] ! When Run Period Report Variables Requested
6,1,Calendar Year of Simulation[] ! When Annual Report Variables Requested
7,1,Environment,Site Outdoor Air Drybulb Temperature [C] !TimeStep
266,1,WESTDATACENTER_EQUIP,ITE CPU Electricity Rate [W] !Hourly
267,1,WESTDATACENTER_EQUIP,ITE Fan Electricity Rate [W] !Hourly
268,1,WESTDATACENTER_EQUIP,ITE UPS Electricity Rate [W] !Hourly
269,1,WESTDATACENTER_EQUIP,ITE CPU Electricity Rate at Design Inlet Conditions [W] !Hourly
270,1,WESTDATACENTER_EQUIP,ITE Fan Electricity Rate at Design Inlet Conditions [W] !Hourly
271,1,WESTDATACENTER_EQUIP,ITE UPS Heat Gain to Zone Rate [W] !Hourly
272,1,WESTDATACENTER_EQUIP,ITE Total Heat Gain to Zone Rate [W] !Hourly
384,1,WESTDATACENTER_EQUIP,ITE Standard Density Air Volume Flow Rate [m3/s] !Hourly
385,1,WESTDATACENTER_EQUIP,ITE Air Inlet Dry-Bulb Temperature [C] !Hourly
386,1,WESTDATACENTER_EQUIP,ITE Air Inlet Dewpoint Temperature [C] !Hourly
387,1,WESTDATACENTER_EQUIP,ITE Air Inlet Relative Humidity [%] !Hourly
388,1,WESTDATACENTER_EQUIP,ITE Air Outlet Dry-Bulb Temperature [C] !Hourly
389,1,WESTDATACENTER_EQUIP,ITE Supply Heat Index [] !Hourly
390,1,WESTDATACENTER_EQUIP,ITE Air Inlet Operating Range Exceeded Time [hr] !Hourly
391,1,WESTDATACENTER_EQUIP,ITE Air Inlet Dry-Bulb Temperature Above Operating Range Time [hr] !Hourly
392,1,WESTDATACENTER_EQUIP,ITE Air Inlet Dry-Bulb Temperature Below Operating Range Time [hr] !Hourly
393,1,WESTDATACENTER_EQUIP,ITE Air Inlet Dewpoint Temperature Above Operating Range Time [hr] !Hourly
394,1,WESTDATACENTER_EQUIP,ITE Air Inlet Dewpoint Temperature Below Operating Range Time [hr] !Hourly
395,1,WESTDATACENTER_EQUIP,ITE Air Inlet Relative Humidity Above Operating Range Time [hr] !Hourly
396,1,WESTDATACENTER_EQUIP,ITE Air Inlet Relative Humidity Below Operating Range Time [hr] !Hourly
397,1,WESTDATACENTER_EQUIP,ITE Air Inlet Dry-Bulb Temperature Difference Above Operating Range [deltaC] !Hourly
398,1,WESTDATACENTER_EQUIP,ITE Air Inlet Dry-Bulb Temperature Difference Below Operating Range [deltaC] !Hourly
399,1,WESTDATACENTER_EQUIP,ITE Air Inlet Dewpoint Temperature Difference Above Operating Range [deltaC] !Hourly
400,1,WESTDATACENTER_EQUIP,ITE Air Inlet Dewpoint Temperature Difference Below Operating Range [deltaC] !Hourly
401,1,WESTDATACENTER_EQUIP,ITE Air Inlet Relative Humidity Difference Above Operating Range [%] !Hourly
402,1,WESTDATACENTER_EQUIP,ITE Air Inlet Relative Humidity Difference Below Operating Range [%] !Hourly
403,1,EASTDATACENTER_EQUIP,ITE CPU Electricity Rate [W] !Hourly
404,1,EASTDATACENTER_EQUIP,ITE Fan Electricity Rate [W] !Hourly
405,1,EASTDATACENTER_EQUIP,ITE UPS Electricity Rate [W] !Hourly
406,1,EASTDATACENTER_EQUIP,ITE CPU Electricity Rate at Design Inlet Conditions [W] !Hourly
407,1,EASTDATACENTER_EQUIP,ITE Fan Electricity Rate at Design Inlet Conditions [W] !Hourly
408,1,EASTDATACENTER_EQUIP,ITE UPS Heat Gain to Zone Rate [W] !Hourly
409,1,EASTDATACENTER_EQUIP,ITE Total Heat Gain to Zone Rate [W] !Hourly
449,1,EASTDATACENTER_EQUIP,ITE Standard Density Air Volume Flow Rate [m3/s] !Hourly
450,1,EASTDATACENTER_EQUIP,ITE Air Inlet Dry-Bulb Temperature [C] !Hourly
451,1,EASTDATACENTER_EQUIP,ITE Air Inlet Dewpoint Temperature [C] !Hourly
452,1,EASTDATACENTER_EQUIP,ITE Air Inlet Relative Humidity [%] !Hourly
453,1,EASTDATACENTER_EQUIP,ITE Air Outlet Dry-Bulb Temperature [C] !Hourly
454,1,EASTDATACENTER_EQUIP,ITE Supply Heat Index [] !Hourly
455,1,EASTDATACENTER_EQUIP,ITE Air Inlet Operating Range Exceeded Time [hr] !Hourly
456,1,EASTDATACENTER_EQUIP,ITE Air Inlet Dry-Bulb Temperature Above Operating Range Time [hr] !Hourly
457,1,EASTDATACENTER_EQUIP,ITE Air Inlet Dry-Bulb Temperature Below Operating Range Time [hr] !Hourly
458,1,EASTDATACENTER_EQUIP,ITE Air Inlet Dewpoint Temperature Above Operating Range Time [hr] !Hourly
459,1,EASTDATACENTER_EQUIP,ITE Air Inlet Dewpoint Temperature Below Operating Range Time [hr] !Hourly
460,1,EASTDATACENTER_EQUIP,ITE Air Inlet Relative Humidity Above Operating Range Time [hr] !Hourly
461,1,EASTDATACENTER_EQUIP,ITE Air Inlet Relative Humidity Below Operating Range Time [hr] !Hourly
462,1,EASTDATACENTER_EQUIP,ITE Air Inlet Dry-Bulb Temperature Difference Above Operating Range [deltaC] !Hourly
463,1,EASTDATACENTER_EQUIP,ITE Air Inlet Dry-Bulb Temperature Difference Below Operating Range [deltaC] !Hourly
464,1,EASTDATACENTER_EQUIP,ITE Air Inlet Dewpoint Temperature Difference Above Operating Range [deltaC] !Hourly
465,1,EASTDATACENTER_EQUIP,ITE Air Inlet Dewpoint Temperature Difference Below Operating Range [deltaC] !Hourly
466,1,EASTDATACENTER_EQUIP,ITE Air Inlet Relative Humidity Difference Above Operating Range [%] !Hourly
467,1,EASTDATACENTER_EQUIP,ITE Air Inlet Relative Humidity Difference Below Operating Range [%] !Hourly
468,1,WEST ZONE,Zone ITE CPU Electricity Rate [W] !Hourly
469,1,WEST ZONE,Zone ITE Fan Electricity Rate [W] !Hourly
470,1,WEST ZONE,Zone ITE UPS Electricity Rate [W] !Hourly
471,1,WEST ZONE,Zone ITE CPU Electricity Rate at Design Inlet Conditions [W] !Hourly
472,1,WEST ZONE,Zone ITE Fan Electricity Rate at Design Inlet Conditions [W] !Hourly
473,1,WEST ZONE,Zone ITE UPS Heat Gain to Zone Rate [W] !Hourly
474,1,WEST ZONE,Zone ITE Total Heat Gain to Zone Rate [W] !Hourly
475,1,EAST ZONE,Zone ITE CPU Electricity Rate [W] !Hourly
476,1,EAST ZONE,Zone ITE Fan Electricity Rate [W] !Hourly
477,1,EAST ZONE,Zone ITE UPS Electricity Rate [W] !Hourly
478,1,EAST ZONE,Zone ITE CPU Electricity Rate at Design Inlet Conditions [W] !Hourly
479,1,EAST ZONE,Zone ITE Fan Electricity Rate at Design Inlet Conditions [W] !Hourly
480,1,EAST ZONE,Zone ITE UPS Heat Gain to Zone Rate [W] !Hourly
481,1,EAST ZONE,Zone ITE Total Heat Gain to Zone Rate [W] !Hourly
482,1,EMS,Power Utilization Effectiveness [] !TimeStep
621,1,WEST ZONE,Zone Air Temperature [C] !TimeStep
622,1,WEST ZONE,Zone Air Relative Humidity [%] !TimeStep
623,1,WEST ZONE,Zone Thermostat Control Type [] !Hourly
624,1,WEST ZONE,Zone Thermostat Heating Setpoint Temperature [C] !Hourly
625,1,WEST ZONE,Zone Thermostat Cooling Setpoint Temperature [C] !Hourly
688,1,EAST ZONE,Zone Air Temperature [C] !TimeStep
689,1,EAST ZONE,Zone Air Relative Humidity [%] !TimeStep
690,1,EAST ZONE,Zone Thermostat Control Type [] !Hourly
691,1,EAST ZONE,Zone Thermostat Heating Setpoint Temperature [C] !Hourly
692,1,EAST ZONE,Zone Thermostat Cooling Setpoint Temperature [C] !Hourly
755,1,WEST PLENUM,Zone Thermostat Control Type [] !Hourly
756,1,WEST PLENUM,Zone Thermostat Heating Setpoint Temperature [C] !Hourly
757,1,WEST PLENUM,Zone Thermostat Cooling Setpoint Temperature [C] !Hourly
820,1,EAST PLENUM,Zone Thermostat Control Type [] !Hourly
821,1,EAST PLENUM,Zone Thermostat Heating Setpoint Temperature [C] !Hourly
822,1,EAST PLENUM,Zone Thermostat Cooling Setpoint Temperature [C] !Hourly
970,1,Whole Building,Facility Total Building Electricity Demand Rate [W] !Hourly
971,1,Whole Building,Facility Total HVAC Electricity Demand Rate [W] !Hourly
972,1,Whole Building,Facility Total Electricity Demand Rate [W] !Hourly
973,1,WEST ZONE,Zone Oscillating Temperatures Time [hr] !Hourly
974,1,EAST ZONE,Zone Oscillating Temperatures Time [hr] !Hourly
975,1,WEST PLENUM,Zone Oscillating Temperatures Time [hr] !Hourly
976,1,EAST PLENUM,Zone Oscillating Temperatures Time [hr] !Hourly
977,1,Facility,Facility Any Zone Oscillating Temperatures Time [hr] !Hourly
978,1,WEST ZONE,Zone Heating Setpoint Not Met Time [hr] !Hourly
979,1,WEST ZONE,Zone Heating Setpoint Not Met While Occupied Time [hr] !Hourly
980,1,WEST ZONE,Zone Cooling Setpoint Not Met Time [hr] !Hourly
981,1,WEST ZONE,Zone Cooling Setpoint Not Met While Occupied Time [hr] !Hourly
982,1,EAST ZONE,Zone Heating Setpoint Not Met Time [hr] !Hourly
983,1,EAST ZONE,Zone Heating Setpoint Not Met While Occupied Time [hr] !Hourly
984,1,EAST ZONE,Zone Cooling Setpoint Not Met Time [hr] !Hourly
985,1,EAST ZONE,Zone Cooling Setpoint Not Met While Occupied Time [hr] !Hourly
986,1,WEST PLENUM,Zone Heating Setpoint Not Met Time [hr] !Hourly
987,1,WEST PLENUM,Zone Heating Setpoint Not Met While Occupied Time [hr] !Hourly
988,1,WEST PLENUM,Zone Cooling Setpoint Not Met Time [hr] !Hourly
989,1,WEST PLENUM,Zone Cooling Setpoint Not Met While Occupied Time [hr] !Hourly
990,1,EAST PLENUM,Zone Heating Setpoint Not Met Time [hr] !Hourly
991,1,EAST PLENUM,Zone Heating Setpoint Not Met While Occupied Time [hr] !Hourly
992,1,EAST PLENUM,Zone Cooling Setpoint Not Met Time [hr] !Hourly
993,1,EAST PLENUM,Zone Cooling Setpoint Not Met While Occupied Time [hr] !Hourly
994,1,WEST ZONE VAV SYSTEM,Zone Air Terminal VAV Damper Position [] !Hourly
995,1,WEST ZONE VAV SYSTEM,Zone Air Terminal Minimum Air Flow Fraction [] !Hourly
996,1,EAST ZONE VAV SYSTEM,Zone Air Terminal VAV Damper Position [] !Hourly
997,1,EAST ZONE VAV SYSTEM,Zone Air Terminal Minimum Air Flow Fraction [] !Hourly
998,1,WEST ZONE VAV SYSTEM,Zone Air Terminal Outdoor Air Volume Flow Rate [m3/s] !Hourly
999,1,EAST ZONE VAV SYSTEM,Zone Air Terminal Outdoor Air Volume Flow Rate [m3/s] !Hourly
1062,1,WEST ZONE CW COOLING COIL,Cooling Coil Total Cooling Rate [W] !TimeStep
1063,1,WEST ZONE CW COOLING COIL,Cooling Coil Sensible Cooling Rate [W] !TimeStep
1066,1,EAST ZONE CW COOLING COIL,Cooling Coil Total Cooling Rate [W] !TimeStep
1067,1,EAST ZONE CW COOLING COIL,Cooling Coil Sensible Cooling Rate [W] !TimeStep
1068,1,WEST ZONE SUPPLY FAN,Fan Electricity Rate [W] !Hourly
1069,1,WEST ZONE SUPPLY FAN,Fan Rise in Air Temperature [deltaC] !Hourly
1070,1,WEST ZONE SUPPLY FAN,Fan Heat Gain to Air [W] !Hourly
1071,1,WEST ZONE SUPPLY FAN,Fan Electricity Energy [J] !Hourly
1108,1,WEST ZONE SUPPLY FAN,Fan Air Mass Flow Rate [kg/s] !Hourly
1109,1,EAST ZONE SUPPLY FAN,Fan Electricity Rate [W] !Hourly
1110,1,EAST ZONE SUPPLY FAN,Fan Rise in Air Temperature [deltaC] !Hourly
1111,1,EAST ZONE SUPPLY FAN,Fan Heat Gain to Air [W] !Hourly
1112,1,EAST ZONE SUPPLY FAN,Fan Electricity Energy [J] !Hourly
1113,1,EAST ZONE SUPPLY FAN,Fan Air Mass Flow Rate [kg/s] !Hourly
1114,1,WEST DATA CENTER IEC,Evaporative Cooler Total Stage Effectiveness [] !TimeStep
1115,1,WEST DATA CENTER IEC,Evaporative Cooler Operating Mode Status [] !TimeStep
1116,1,EAST DATA CENTER IEC,Evaporative Cooler Total Stage Effectiveness [] !TimeStep
1117,1,EAST DATA CENTER IEC,Evaporative Cooler Operating Mode Status [] !TimeStep
1118,1,WEST DATA CENTER DEC,Evaporative Cooler Stage Effectiveness [] !TimeStep
1119,1,EAST DATA CENTER DEC,Evaporative Cooler Stage Effectiveness [] !TimeStep
1145,1,WEST DATA CENTER IEC,Evaporative Cooler Electricity Rate [W] !TimeStep
1146,1,WEST DATA CENTER IEC,Evaporative Cooler Water Volume [m3] !TimeStep
1245,1,EAST DATA CENTER IEC,Evaporative Cooler Electricity Rate [W] !TimeStep
1246,1,EAST DATA CENTER IEC,Evaporative Cooler Water Volume [m3] !TimeStep
1249,1,WEST DATA CENTER DEC,Evaporative Cooler Electricity Rate [W] !TimeStep
1250,1,WEST DATA CENTER DEC,Evaporative Cooler Water Volume [m3] !TimeStep
1253,1,EAST DATA CENTER DEC,Evaporative Cooler Electricity Rate [W] !TimeStep
1254,1,EAST DATA CENTER DEC,Evaporative Cooler Water Volume [m3] !TimeStep
1256,1,WEST DX COOLING COIL,Cooling Coil Total Cooling Rate [W] !TimeStep
1258,1,WEST DX COOLING COIL,Cooling Coil Sensible Cooling Rate [W] !TimeStep
1260,1,EAST DX COOLING COIL,Cooling Coil Total Cooling Rate [W] !TimeStep
1262,1,EAST DX COOLING COIL,Cooling Coil Sensible Cooling Rate [W] !TimeStep
1277,1,CHILLER,Chiller Evaporator Cooling Rate [W] !Hourly
1303,1,CHILLER,Chiller Evaporator Inlet Temperature [C] !Hourly
1304,1,CHILLER,Chiller Evaporator Outlet Temperature [C] !Hourly
1305,1,CHILLER,Chiller Condenser Heat Transfer Rate [W] !Hourly
1331,1,CHILLER,Chiller Condenser Inlet Temperature [C] !Hourly
1332,1,CHILLER,Chiller Condenser Outlet Temperature [C] !Hourly
1473,1,WEST ZONE INLET NODE,System Node Temperature [C] !TimeStep
1474,1,WEST ZONE INLET NODE,System Node Mass Flow Rate [kg/s] !TimeStep
1475,1,WEST OUTSIDE AIR INLET NODE,System Node Temperature [C] !TimeStep
1476,1,WEST OUTSIDE AIR INLET NODE,System Node Mass Flow Rate [kg/s] !TimeStep
1477,1,WEST IEC SECONDARY AIR INLET NODE,System Node Temperature [C] !TimeStep
1478,1,WEST IEC SECONDARY AIR INLET NODE,System Node Mass Flow Rate [kg/s] !TimeStep
1479,1,WEST ZONE DEC OUTLET NODE,System Node Temperature [C] !TimeStep
1480,1,WEST ZONE DEC OUTLET NODE,System Node Setpoint Temperature [C] !TimeStep
1481,1,WEST ZONE IEC OUTLET NODE,System Node Temperature [C] !TimeStep
1482,1,WEST ZONE IEC OUTLET NODE,System Node Setpoint Temperature [C] !TimeStep
1483,1,WEST ZONE CCOIL AIR OUTLET NODE,System Node Temperature [C] !TimeStep
1484,1,WEST ZONE CCOIL AIR OUTLET NODE,System Node Setpoint Temperature [C] !TimeStep
1485,1,WEST AIR LOOP OUTLET NODE,System Node Temperature [C] !TimeStep
1486,1,WEST AIR LOOP OUTLET NODE,System Node Setpoint Temperature [C] !TimeStep
1487,1,EAST ZONE INLET NODE,System Node Temperature [C] !TimeStep
1488,1,EAST ZONE INLET NODE,System Node Mass Flow Rate [kg/s] !TimeStep
1489,1,EAST OUTSIDE AIR INLET NODE,System Node Temperature [C] !TimeStep
1490,1,EAST OUTSIDE AIR INLET NODE,System Node Mass Flow Rate [kg/s] !TimeStep
1491,1,EAST IEC SECONDARY AIR INLET NODE,System Node Temperature [C] !TimeStep
1492,1,EAST IEC SECONDARY AIR INLET NODE,System Node Mass Flow Rate [kg/s] !TimeStep
1493,1,EAST ZONE DEC OUTLET NODE,System Node Temperature [C] !TimeStep
1494,1,EAST ZONE DEC OUTLET NODE,System Node Setpoint Temperature [C] !TimeStep
1495,1,EAST ZONE IEC OUTLET NODE,System Node Temperature [C] !TimeStep
1496,1,EAST ZONE IEC OUTLET NODE,System Node Setpoint Temperature [C] !TimeStep
1497,1,EAST ZONE CCOIL AIR OUTLET NODE,System Node Temperature [C] !TimeStep
1498,1,EAST ZONE CCOIL AIR OUTLET NODE,System Node Setpoint Temperature [C] !TimeStep
1499,1,EAST AIR LOOP OUTLET NODE,System Node Temperature [C] !TimeStep
1500,1,EAST AIR LOOP OUTLET NODE,System Node Setpoint Temperature [C] !TimeStep
1501,1,WEST ZONE RETURN AIR NODE,System Node Temperature [C] !TimeStep
1502,1,WEST ZONE RETURN AIR NODE,System Node Mass Flow Rate [kg/s] !TimeStep
1503,1,WEST ZONE MIXED AIR NODE,System Node Temperature [C] !TimeStep
1504,1,WEST ZONE MIXED AIR NODE,System Node Mass Flow Rate [kg/s] !TimeStep
1505,1,WEST ZONE SUPPLY FAN OUTLET NODE,System Node Temperature [C] !TimeStep
1506,1,EAST ZONE SUPPLY FAN OUTLET NODE,System Node Temperature [C] !TimeStep
1507,1,WEST IEC SECONDARY AIR OUTLET NODE,System Node Temperature [C] !TimeStep
1508,1,WEST IEC SECONDARY AIR OUTLET NODE,System Node Mass Flow Rate [kg/s] !TimeStep
End of Data Dictionary
1,JUNEFIRST,  37.62,-122.40,  -8.00,   2.00
2,1, 6, 1, 0, 1, 0.00,15.00,Tuesday
7,15.0
482,1.0491803534244342
621,23.096020257755786
622,50.949206797821546
688,45.38192548264597
689,15.122154935194477
1062,0.0
1063,0.0
1066,0.21064583876089168
1067,0.2106458387621649
1114,0.2055425839591235
1116,0.0
1118,0.4999999999999999
1119,0.0
1145,414.5377321967469
1146,0.0
1245,0.0
1246,0.0
1249,0.0
1250,0.00003316262333344134
1253,0.0
1254,0.0
1256,3958.8579687901256
1258,2121.540281204166
1260,0.0
1262,0.0
1473,16.2804305398787
1474,5.4511741428253515
1475,14.999999999999998
1476,4.816642923855959
1477,14.999999999999998
1478,2.512303554552952
1479,16.285602814358477
1480,15.887704288476892
1481,16.224888546425145
1482,15.887704288476892
1483,15.884451621504413
1484,15.887704288476892
1485,15.884451621504413
1486,15.887704288476892
1487,39.19693954400661
1488,20.310800628942502
1489,14.999999999999998
1490,3.589644146588877
1491,14.999999999999998
1492,0.0
1493,40.193283582831
1494,40.19327404831761
1495,40.193283582831
1496,40.19327404831761
1497,40.193283582831
1498,40.19327404831761
1499,40.1932734331276
1500,40.19327404831761
1501,23.262663133036973
1502,5.4511741428253515
1503,15.997897723499182
1504,5.4511741428253515
1505,16.285602814358477
1506,40.193283582831
1507,15.040132672694279
1508,2.512303554552952
1115,0.2857142857142857
1117,0.0
2,1, 6, 1, 0, 1,15.00,30.00,Tuesday
7,15.0
482,1.056782264838438
621,23.079516587284974
622,50.012354794654506
688,46.224771975139056
689,14.3380049847486
1062,0.0
1063,0.0
1066,0.3905936322944003
1067,0.390593632287179
1114,0.0
1116,0.0
1118,0.7
1119,0.0
1145,0.0
1146,0.0
1245,0.0
1246,0.0
1249,0.0
1250,0.00006065305206769182
1253,0.0
1254,0.0
1256,0.0
1258,0.0
1260,0.0
1262,0.0
1473,16.94515081772453
1474,6.085253301353756
1475,15.000000000000002
1476,4.933889703441235
1477,15.000000000000002
1478,0.0
1479,16.82772034588823
1480,16.82771529209647
1481,16.82772034588823
1482,16.82771529209647
1483,16.82772034588823
1484,16.82771529209647
1485,16.82772034588823
1486,16.82771529209647
1487,39.57805751034456
1488,20.31080062894251
1489,15.000000000000002
1490,3.7934185720584788
1491,15.000000000000002
1492,0.0
1493,40.47078055834989
1494,40.47077453253249
1495,40.47078055834989
1496,40.47077453253249
1497,40.47078055834989
1498,40.47077453253249
1499,40.47076173390676
1500,40.47077453253249
1501,23.05199255643442
1502,6.085253301353756
1503,16.523245417626196
1504,6.085253301353756
1505,16.82772034588823
1506,40.47078055834989
1507,15.000000000000002
1508,0.0
1115,0.0
1117,0.0
2,1, 6, 1, 0, 1,30.00,45.00,Tuesday
7,15.0
482,1.0540489770323787
621,23.321137663810383
622,48.369193757073745
688,46.42953355767537
689,14.027486686235477
1062,0.0
1063,0.0
1066,0.3439969502418628
1067,0.34399695015160275
1114,0.0
1116,0.0
1118,0.7
1119,0.0
1145,0.0
1146,0.0
1245,0.0
1246,0.0
1249,0.0
1250,0.00006751569078478196
1253,0.0
1254,0.0
1256,0.0
1258,0.0
1260,0.0
1262,0.0
1473,17.204452674495386
1474,6.2389130330028495
1475,15.0
1476,5.101171013885336
1477,15.0
1478,0.0
1479,16.80388975701657
1480,16.803891154324333
1481,16.80388975701657
1482,16.803891154324333
1483,16.80388975701657
1484,16.803891154324333
1485,16.80388975701657
1486,16.803891154324333
1487,39.736570086308284
1488,20.31080062894251
1489,15.0
1490,4.042943072310868
1491,15.0
1492,0.0
1493,40.426717932240024
1494,40.42671272073078
1495,40.426717932240024
1496,40.42671272073078
1497,40.426717932240024
1498,40.42671272073078
1499,40.426701349982
1500,40.42671272073078
1501,23.181746172073435
1502,6.2389130330028495
1503,16.493119832607988
1504,6.2389130330028495
1505,16.80388975701657
1506,40.426717932240024
1507,15.0
1508,0.0
1115,0.0
1117,0.0
2,1, 6, 1, 0, 1,45.00,60.00,Tuesday
7,15.0
482,1.0537783950741113
621,23.343865567242197
622,47.05460256901528
688,46.459829111923376
689,13.836304907734439
1062,0.0
1063,0.0
1066,2.2992074420640556
1067,2.2992074419722393
1114,0.0
1116,0.0
1118,0.7
1119,0.0
1145,0.0
1146,0.0
1245,0.0
1246,0.0
1249,0.0
1250,0.00007687121429711918
1253,0.0
1254,0.0
1256,0.0
1258,0.0
1260,0.0
1262,0.0
1473,17.239615671789142
1474,6.2389130330028495
1475,15.0
1476,4.911569708152196
1477,15.0
1478,0.0
1479,17.090595721172875
1480,17.09043636560977
1481,17.090595721172875
1482,17.09043636560977
1483,17.090595721172875
1484,17.09043636560977
1485,17.090595721172875
1486,17.09043636560977
1487,39.73009264941539
1488,20.31080062894251
1489,15.0
1490,4.240298610879166
1491,15.0
1492,0.0
1493,40.26365591198916
1494,40.26354504690298
1495,40.26365591198916
1496,40.26354504690298
1497,40.26365591198916
1498,40.26354504690298
1499,40.26354504848691
1500,40.26354504690298
1501,23.358299570758863
1502,6.2389130330028495
1503,16.779664306690417
1504,6.2389130330028495
1505,17.090595721172875
1506,40.26365591198916
1507,15.0
1508,0.0
1115,0.0
1117,0.0
2,1, 6, 1, 0, 1, 0.00,60.00,Tuesday
266,18778.252183734396
267,15060.494980105399
268,3383.874716383979
269,13936.849545599995
270,10219.334400000002
271,3383.874716383979
272,37222.62188022377
384,5.426361415905396
385,17.60549093985805
386,12.101984710394234
387,70.22601178820746
388,24.958945055954324
389,0.08072397024089575
390,0.0
391,0.0
392,0.0
393,0.0
394,0.0
395,0.0
396,0.0
397,0.0
398,0.0
399,0.0
400,0.0
401,0.0
402,0.0
403,69761.0407909226
404,65611.49571213702
405,13537.253650305962
406,15546.354479999996
407,11399.520000000002
408,13537.253650305962
409,148909.79015336558
449,21.857451156243144
450,41.15600186821494
451,12.591851573816019
452,18.616363037481193
453,48.454034616946664
454,0.21509989332736015
455,0.75
456,0.75
457,0.0
458,0.0
459,0.0
460,0.0
461,0.0
462,1.2947410891949112
463,0.0
464,0.0
465,0.0
466,0.0
467,0.0
468,18778.252183734396
469,15060.494980105399
470,3383.874716383979
471,13936.849545599995
472,10219.334400000002
473,3383.874716383979
474,37222.62188022377
475,69761.0407909226
476,65611.49571213702
477,13537.253650305962
478,15546.354479999996
479,11399.520000000002
480,13537.253650305962
481,148909.79015336558
978,0.0
979,0.0
980,0.5
981,0.0
982,0.0
983,0.0
984,0.0
985,0.0
986,0.0
987,0.0
988,0.0
989,0.0
990,0.0
991,0.0
992,0.0
993,0.0
623,4.0
690,4.0
755,0.0
820,0.0
624,20.0
625,23.0
691,20.0
692,23.0
756,0.0
757,0.0
821,0.0
822,0.0
970,186160.81203358938
971,10478.027359578231
972,196638.8393931676
973,0.0
974,0.0
975,0.07142857142857142
976,0.0
977,0.07142857142857142
994,0.9622771379867476
995,0.4
996,0.4
997,0.4
998,4.103590677414461
999,3.2529075298693435
1068,2071.6624160601123
1069,0.30347033950309255
1070,1864.4961744541013
1071,7457984.6978164045
1108,6.003563377546201
1109,8012.2583284749335
1110,0.34756444967431127
1111,7211.03249562744
1112,28844129.982509762
1113,20.31080062894251
1277,0.0
1303,7.0110871019094185
1304,7.0110871019094185
1305,0.0
1331,13.401536048989612
1332,13.401536048989612
2,1, 6, 1, 0, 2, 0.00,15.00,Tuesday
7,15.0
482,1.0538639423711684
621,23.46634028206167
622,45.279857866446285
688,46.3590920670601
689,13.68298006930481
1062,0.0
1063,0.0
1066,0.6181788786135207
1067,0.6181788785132868
1114,0.0
1116,0.0
1118,0.7
1119,0.0
1145,0.0
1146,0.0
1245,0.0
1246,0.0
1249,0.0
1250,0.00007673872274019054
1253,0.0
1254,0.0
1256,0.0
1258,0.0
1260,0.0
1262,0.0
1473,17.45434204422597
1474,6.2389130330028495
1475,15.0
1476,4.893848308767149
1477,15.0
1478,0.0
1479,17.1108110890435
1480,17.110822552164596
1481,17.1108110890435
1482,17.110822552164596
1483,17.1108110890435
1484,17.110822552164596
1485,17.1108110890435
1486,17.110822552164596
1487,39.58996168027561
1488,20.31080062894251
1489,15.0
1490,4.254760151988774
1491,15.0
1492,0.0
1493,40.225789230052264
1494,40.225759421442135
1495,40.225789230052264
1496,40.225759421442135
1497,40.225789230052264
1498,40.225759421442135
1499,40.22575942100713
1500,40.225759421442135
1501,23.343865567242208
1502,6.2389130330028495
1503,16.79989129483114
1504,6.2389130330028495
1505,17.1108110890435
1506,40.225789230052264
1507,15.0
1508,0.0
1115,0.0
1117,0.0
2,1, 6, 1, 0, 2,15.00,30.00,Tuesday
7,15.0
482,1.0538018205983204
621,23.6329247317357
622,44.45994600981161
688,46.30082181956226
689,13.651647622429225
1062,0.0
1063,0.0
1066,1.5058255646001417
1067,1.5058255647358525
1114,0.0
1116,0.0
1118,0.7
1119,0.0
1145,0.0
1146,0.0
1245,0.0
1246,0.0
1249,0.0
1250,0.00007588478479089595
1253,0.0
1254,0.0
1256,0.0
1258,0.0
1260,0.0
1262,0.0
1473,17.488466451297562
1474,6.2389130330028495
1475,15.0
1476,4.978525722898434
1477,15.0
1478,0.0
1479,17.021501673160593
1480,17.021493109886137
1481,17.021501673160593
1482,17.021493109886137
1483,17.021501673160593
1484,17.021493109886137
1485,17.021501673160593
1486,17.021493109886137
1487,39.55890780393603
1488,20.31080062894251
1489,15.0
1490,4.261766475989968
1491,15.0
1492,0.0
1493,40.13350091287571
1494,40.1334282866057
1495,40.13350091287571
1496,40.1334282866057
1497,40.13350091287571
1498,40.1334282866057
1499,40.133428287073066
1500,40.1334282866057
1501,23.46634028206167
1502,6.2389130330028495
1503,16.71057332161923
1504,6.2389130330028495
1505,17.021501673160593
1506,40.13350091287571
1507,15.0
1508,0.0
1115,0.0
1117,0.0
2,1, 6, 1, 0, 2,30.00,45.00,Tuesday
7,15.0
482,1.0537448933061209
621,23.641137163729855
622,44.50491998225618
688,46.23038204517934
689,13.563132879880364
1062,0.0
1063,0.0
1066,0.4409810572598839
1067,0.44098105712955504
1114,0.0
1116,0.0
1118,0.7
1119,0.0
1145,0.0
1146,0.0
1245,0.0
1246,0.0
1249,0.0
1250,0.00007623341466930406
1253,0.0
1254,0.0
1256,0.0
1258,0.0
1260,0.0
1262,0.0
1473,17.408033716338117
1474,6.2389130330028495
1475,15.0
1476,4.950531595934691
1477,15.0
1478,0.0
1479,17.093569564877313
1480,17.093585982745896
1481,17.093569564877313
1482,17.093585982745896
1483,17.093569564877313
1484,17.093585982745896
1485,17.093569564877313
1486,17.093585982745896
1487,39.4777720621246
1488,20.31080062894251
1489,15.0
1490,4.27149803687889
1491,15.0
1492,0.0
1493,40.0715266699309
1494,40.07150540061305
1495,40.0715266699309
1496,40.07150540061305
1497,40.0715266699309
1498,40.07150540061305
1499,40.0715054004609
1500,40.07150540061305
1501,23.6329247317357
1502,6.2389130330028495
1503,16.782657625039523
1504,6.2389130330028495
1505,17.093569564877313
1506,40.0715266699309
1507,15.0
1508,0.0
1115,0.0
1117,0.0
2,1, 6, 1, 0, 2,45.00,60.00,Tuesday
7,15.0
482,1.0537301575310558
621,23.626947053352197
622,44.68281568892327
688,46.16312938769214
689,13.549236459015967
1062,0.0
1063,0.0
1066,0.8316822087526795
1067,0.8316822087312763
1114,0.0
1116,0.0
1118,0.7
1119,0.0
1145,0.0
1146,0.0
1245,0.0
1246,0.0
1249,0.0
1250,0.00007643993941511092
1253,0.0
1254,0.0
1256,0.0
1258,0.0
1260,0.0
1262,0.0
1473,17.468699479368315
1474,6.2389130330028495
1475,15.0
1476,4.8864283084438815
1477,15.0
1478,0.0
1479,17.183911465682815
1480,17.183936567297376
1481,17.183911465682815
1482,17.183936567297376
1483,17.183911465682815
1484,17.183936567297376
1485,17.183911465682815
1486,17.183936567297376
1487,39.42184595133508
1488,20.31080062894251
1489,15.0
1490,4.275495863401955
1491,15.0
1492,0.0
1493,40.00843723574885
1494,40.00839711754011
1495,40.00843723574885
1496,40.00839711754011
1497,40.00843723574885
1498,40.00839711754011
1499,40.00839711761779
1500,40.00839711754011
1501,23.641137163729855
1502,6.2389130330028495
1503,16.873024601779992
1504,6.2389130330028495
1505,17.183911465682815
1506,40.00843723574885
1507,15.0
1508,0.0
1115,0.0
1117,0.0
2,1, 6, 1, 0, 2, 0.00,60.00,Tuesday
266,19529.817340563593
267,15812.022560555577
268,3534.1839901119165
269,13936.849545599995
270,10219.334400000002
271,3534.1839901119165
272,38876.02389123109
384,5.69519684254579
385,18.009959717440665
386,10.967506984954985
387,63.42733609424534
388,25.335253962563584
389,0.07714367206823569
390,0.0
391,0.0
392,0.0
393,0.0
394,0.0
395,0.0
396,0.0
397,0.0
398,0.0
399,0.0
400,0.0
401,0.0
402,0.0
403,70658.9153611402
404,66509.32539087067
405,13716.824075201086
406,15546.354479999996
407,11399.520000000002
408,13716.824075201086
409,150885.06482721196
449,22.140093500093176
450,41.58918354893791
451,12.00709832280431
452,17.470092885611024
453,48.89464747420728
454,0.2149274937703734
455,1.0
456,1.0
457,0.0
458,0.0
459,0.0
460,0.0
461,0.0
462,1.589183548937907
463,0.0
464,0.0
465,0.0
466,0.0
467,0.0
468,19529.817340563593
469,15812.022560555577
470,3534.1839901119165
471,13936.849545599995
472,10219.334400000002
473,3534.1839901119165
474,38876.02389123109
475,70658.9153611402
476,66509.32539087067
477,13716.824075201086
478,15546.354479999996
479,11399.520000000002
480,13716.824075201086
481,150885.06482721196
978,0.0
979,0.0
980,1.0
981,0.0
982,0.0
983,0.0
984,0.0
985,0.0
986,0.0
987,0.0
988,0.0
989,0.0
990,0.0
991,0.0
992,0.0
993,0.0
623,4.0
690,4.0
755,0.0
820,0.0
624,20.0
625,23.0
691,20.0
692,23.0
756,0.0
757,0.0
821,0.0
822,0.0
970,189789.48871844303
971,10210.418825046198
972,199999.90754348924
973,0.0
974,0.0
975,0.0
976,0.0
977,0.0
994,1.0
995,0.4
996,0.4
997,0.4
998,4.092390848842954
999,3.543021569652752
1068,2198.157766109919
1069,0.31091173737358435
1070,1978.3419894989272
1071,7913367.957995709
1108,6.2389130330028495
1109,8012.2583284749335
1110,0.34778833002943976
1111,7211.03249562744
1112,28844129.982509762
1113,20.31080062894251
1277,0.0
1303,7.0112176412605685
1304,7.0112176412605685
1305,0.0
1331,13.401536048989612
1332,13.401536048989612
2,1, 6, 1, 0, 3, 0.00,15.00,Tuesday
7,15.0
482,1.0539181462128446
621,23.705570175950555
622,44.67651747356443
688,46.099449684932466
689,13.512740705995466
1062,0.0
1063,0.0
1066,0.37285987433316514
1067,0.3728598742175446
1114,0.0
1116,0.0
1118,0.7
1119,0.0
1145,0.0
1146,0.0
1245,0.0
1246,0.0
1249,0.0
1250,0.00007536745473046904
1253,0.0
1254,0.0
1256,0.0
1258,0.0
1260,0.0
1262,0.0
1473,17.55130153354587
1474,6.2389130330028495
1475,15.0
1476,4.918030593431723
1477,15.0
1478,0.0
1479,17.137122461472703
1480,17.137137788370772
1481,17.137122461472703
1482,17.137137788370772
1483,17.137122461472703
1484,17.137137788370772
1485,17.137122461472703
1486,17.137137788370772
1487,39.364859479651976
1488,20.31080062894251
1489,15.0
1490,4.27940929834088
1491,15.0
1492,0.0
1493,39.948726503994095
1494,39.94870851744455
1495,39.948726503994095
1496,39.94870851744455
1497,39.948726503994095
1498,39.94870851744455
1499,39.948708517405855
1500,39.94870851744455
1501,23.62694705335221
1502,6.2389130330028495
1503,16.82625089836425
1504,6.2389130330028495
1505,17.137122461472703
1506,39.948726503994095
1507,15.0
1508,0.0
1115,0.0
1117,0.0
2,1, 6, 1, 0, 3,15.00,30.00,Tuesday
7,15.0
482,1.0539288538520704
621,23.747913434860155
622,44.735547634111725
688,46.036533763438655
689,13.508438405785729
1062,0.0
1063,0.0
1066,0.48813694140819974
1067,0.4881369413018826
1114,0.0
1116,0.0
1118,0.7
1119,0.0
1145,0.0
1146,0.0
1245,0.0
1246,0.0
1249,0.0
1250,0.00007446723419313281
1253,0.0
1254,0.0
1256,0.0
1258,0.0
1260,0.0
1262,0.0
1473,17.512986203469474
1474,6.2389130330028495
1475,15.0